version 2
run General-0-20131128-16:43:40-6868
attr configname General
attr datetime 20131128-16:43:40
attr experiment General
attr inifile omnetpp.ini
attr iterationvars ""
attr iterationvars2 $repetition=0
attr measurement ""
attr network Network
attr processid 6868
attr repetition 0
attr replication #0
attr resultdir results
attr runnumber 0
attr seedset 0

vector 8  Network.ICS.queue  queueLength:vector  ETV
attr interpolationmode  sample-hold
attr title  "queue length, vector"
vector 216  Network.v[0].queue  queueLength:vector  ETV
attr interpolationmode  sample-hold
attr title  "queue length, vector"
vector 236  Network.v[1].queue  queueLength:vector  ETV
attr interpolationmode  sample-hold
attr title  "queue length, vector"
vector 256  Network.v[2].queue  queueLength:vector  ETV
attr interpolationmode  sample-hold
attr title  "queue length, vector"
vector 209  Network.v[0].app  sentPk:vector(packetBytes)  ETV
attr interpolationmode  none
attr source  sentPk
attr title  "packets sent, vector(packetBytes)"
vector 229  Network.v[1].app  sentPk:vector(packetBytes)  ETV
attr interpolationmode  none
attr source  sentPk
attr title  "packets sent, vector(packetBytes)"
vector 249  Network.v[2].app  sentPk:vector(packetBytes)  ETV
attr interpolationmode  none
attr source  sentPk
attr title  "packets sent, vector(packetBytes)"
vector 211  Network.v[0].encap  encapPk:vector(packetBytes)  ETV
attr interpolationmode  none
attr source  encapPk
attr title  "packets encapsulated, vector(packetBytes)"
vector 231  Network.v[1].encap  encapPk:vector(packetBytes)  ETV
attr interpolationmode  none
attr source  encapPk
attr title  "packets encapsulated, vector(packetBytes)"
vector 251  Network.v[2].encap  encapPk:vector(packetBytes)  ETV
attr interpolationmode  none
attr source  encapPk
attr title  "packets encapsulated, vector(packetBytes)"
vector 213  Network.v[0].queue  rcvdPk:vector(packetBytes)  ETV
attr interpolationmode  none
attr title  "received packets, vector(packetBytes)"
vector 215  Network.v[0].queue  queueingTime:vector  ETV
attr interpolationmode  none
attr title  "queueing time, vector"
vector 233  Network.v[1].queue  rcvdPk:vector(packetBytes)  ETV
attr interpolationmode  none
attr title  "received packets, vector(packetBytes)"
vector 235  Network.v[1].queue  queueingTime:vector  ETV
attr interpolationmode  none
attr title  "queueing time, vector"
vector 253  Network.v[2].queue  rcvdPk:vector(packetBytes)  ETV
attr interpolationmode  none
attr title  "received packets, vector(packetBytes)"
vector 255  Network.v[2].queue  queueingTime:vector  ETV
attr interpolationmode  none
attr title  "queueing time, vector"
vector 222  Network.v[0].mac  rxPkFromHL:vector(packetBytes)  ETV
attr interpolationmode  none
attr source  rxPkFromHL
attr title  "packet bytes from higher layer, vector(packetBytes)"
vector 242  Network.v[1].mac  rxPkFromHL:vector(packetBytes)  ETV
attr interpolationmode  none
attr source  rxPkFromHL
attr title  "packet bytes from higher layer, vector(packetBytes)"
vector 217  Network.v[0].mac  txPk:vector(packetBytes)  ETV
attr interpolationmode  none
attr source  txPk
attr title  "packets transmitted, vector(packetBytes)"
vector 237  Network.v[1].mac  txPk:vector(packetBytes)  ETV
attr interpolationmode  none
attr source  txPk
attr title  "packets transmitted, vector(packetBytes)"
vector 129  Network.ap[1].mac[1]  rxPkOk:vector(packetBytes)  ETV
attr interpolationmode  none
attr source  rxPkOk
attr title  "packets received OK, vector(packetBytes)"
vector 130  Network.ap[1].mac[1]  passedUpPk:vector(packetBytes)  ETV
attr interpolationmode  none
attr source  packetSentToUpper
attr title  "packets passed to higher layer, vector(packetBytes)"
vector 140  Network.ap[1].mac[2]  rxPkOk:vector(packetBytes)  ETV
attr interpolationmode  none
attr source  rxPkOk
attr title  "packets received OK, vector(packetBytes)"
vector 141  Network.ap[1].mac[2]  passedUpPk:vector(packetBytes)  ETV
attr interpolationmode  none
attr source  packetSentToUpper
attr title  "packets passed to higher layer, vector(packetBytes)"
vector 270  Network.ap[1].relayUnit  "buffer level"  ETV
vector 122  Network.ap[1].mac[0]  rxPkFromHL:vector(packetBytes)  ETV
attr interpolationmode  none
attr source  rxPkFromHL
attr title  "packet bytes from higher layer, vector(packetBytes)"
vector 144  Network.ap[1].mac[2]  rxPkFromHL:vector(packetBytes)  ETV
attr interpolationmode  none
attr source  rxPkFromHL
attr title  "packet bytes from higher layer, vector(packetBytes)"
vector 133  Network.ap[1].mac[1]  rxPkFromHL:vector(packetBytes)  ETV
attr interpolationmode  none
attr source  rxPkFromHL
attr title  "packet bytes from higher layer, vector(packetBytes)"
vector 117  Network.ap[1].mac[0]  txPk:vector(packetBytes)  ETV
attr interpolationmode  none
attr source  txPk
attr title  "packets transmitted, vector(packetBytes)"
vector 139  Network.ap[1].mac[2]  txPk:vector(packetBytes)  ETV
attr interpolationmode  none
attr source  txPk
attr title  "packets transmitted, vector(packetBytes)"
vector 128  Network.ap[1].mac[1]  txPk:vector(packetBytes)  ETV
attr interpolationmode  none
attr source  txPk
attr title  "packets transmitted, vector(packetBytes)"
vector 46  Network.switch.mac[2]  rxPkOk:vector(packetBytes)  ETV
attr interpolationmode  none
attr source  rxPkOk
attr title  "packets received OK, vector(packetBytes)"
vector 47  Network.switch.mac[2]  passedUpPk:vector(packetBytes)  ETV
attr interpolationmode  none
attr source  packetSentToUpper
attr title  "packets passed to higher layer, vector(packetBytes)"
vector 245  Network.v[1].mac  droppedPkNotForUs:vector(packetBytes)  ETV
attr interpolationmode  none
attr source  dropPkNotForUs
attr title  "packets dropped/not for us, vector(packetBytes)"
vector 225  Network.v[0].mac  droppedPkNotForUs:vector(packetBytes)  ETV
attr interpolationmode  none
attr source  dropPkNotForUs
attr title  "packets dropped/not for us, vector(packetBytes)"
vector 268  Network.switch.relayUnit  "buffer level"  ETV
vector 28  Network.switch.mac[0]  rxPkFromHL:vector(packetBytes)  ETV
attr interpolationmode  none
attr source  rxPkFromHL
attr title  "packet bytes from higher layer, vector(packetBytes)"
vector 39  Network.switch.mac[1]  rxPkFromHL:vector(packetBytes)  ETV
attr interpolationmode  none
attr source  rxPkFromHL
attr title  "packet bytes from higher layer, vector(packetBytes)"
vector 61  Network.switch.mac[3]  rxPkFromHL:vector(packetBytes)  ETV
attr interpolationmode  none
attr source  rxPkFromHL
attr title  "packet bytes from higher layer, vector(packetBytes)"
vector 23  Network.switch.mac[0]  txPk:vector(packetBytes)  ETV
attr interpolationmode  none
attr source  txPk
attr title  "packets transmitted, vector(packetBytes)"
vector 34  Network.switch.mac[1]  txPk:vector(packetBytes)  ETV
attr interpolationmode  none
attr source  txPk
attr title  "packets transmitted, vector(packetBytes)"
vector 56  Network.switch.mac[3]  txPk:vector(packetBytes)  ETV
attr interpolationmode  none
attr source  txPk
attr title  "packets transmitted, vector(packetBytes)"
vector 10  Network.ICS.mac  rxPkOk:vector(packetBytes)  ETV
attr interpolationmode  none
attr source  rxPkOk
attr title  "packets received OK, vector(packetBytes)"
vector 11  Network.ICS.mac  passedUpPk:vector(packetBytes)  ETV
attr interpolationmode  none
attr source  packetSentToUpper
attr title  "packets passed to higher layer, vector(packetBytes)"
vector 71  Network.ap[0].mac[0]  rxPkOk:vector(packetBytes)  ETV
attr interpolationmode  none
attr source  rxPkOk
attr title  "packets received OK, vector(packetBytes)"
vector 72  Network.ap[0].mac[0]  passedUpPk:vector(packetBytes)  ETV
attr interpolationmode  none
attr source  packetSentToUpper
attr title  "packets passed to higher layer, vector(packetBytes)"
vector 165  Network.ap[2].mac[0]  rxPkOk:vector(packetBytes)  ETV
attr interpolationmode  none
attr source  rxPkOk
attr title  "packets received OK, vector(packetBytes)"
vector 166  Network.ap[2].mac[0]  passedUpPk:vector(packetBytes)  ETV
attr interpolationmode  none
attr source  packetSentToUpper
attr title  "packets passed to higher layer, vector(packetBytes)"
vector 4  Network.ICS.encap  decapPk:vector(packetBytes)  ETV
attr interpolationmode  none
attr source  decapPk
attr title  "packets decapsulated, vector(packetBytes)"
vector 269  Network.ap[0].relayUnit  "buffer level"  ETV
vector 271  Network.ap[2].relayUnit  "buffer level"  ETV
vector 0  Network.ICS.app  rcvdPk:vector(packetBytes)  ETV
attr interpolationmode  none
attr source  rcvdPk
attr title  "packets received, vector(packetBytes)"
vector 2  Network.ICS.app  endToEndDelay:vector  ETV
attr interpolationmode  none
attr source  messageAge(rcvdPk)
attr title  "end-to-end delay, vector"
attr unit  s
vector 262  Network.v[2].mac  rxPkFromHL:vector(packetBytes)  ETV
attr interpolationmode  none
attr source  rxPkFromHL
attr title  "packet bytes from higher layer, vector(packetBytes)"
vector 257  Network.v[2].mac  txPk:vector(packetBytes)  ETV
attr interpolationmode  none
attr source  txPk
attr title  "packets transmitted, vector(packetBytes)"
vector 93  Network.ap[0].mac[2]  rxPkOk:vector(packetBytes)  ETV
attr interpolationmode  none
attr source  rxPkOk
attr title  "packets received OK, vector(packetBytes)"
vector 94  Network.ap[0].mac[2]  passedUpPk:vector(packetBytes)  ETV
attr interpolationmode  none
attr source  packetSentToUpper
attr title  "packets passed to higher layer, vector(packetBytes)"
vector 104  Network.ap[0].mac[3]  rxPkOk:vector(packetBytes)  ETV
attr interpolationmode  none
attr source  rxPkOk
attr title  "packets received OK, vector(packetBytes)"
vector 105  Network.ap[0].mac[3]  passedUpPk:vector(packetBytes)  ETV
attr interpolationmode  none
attr source  packetSentToUpper
attr title  "packets passed to higher layer, vector(packetBytes)"
vector 75  Network.ap[0].mac[0]  rxPkFromHL:vector(packetBytes)  ETV
attr interpolationmode  none
attr source  rxPkFromHL
attr title  "packet bytes from higher layer, vector(packetBytes)"
vector 108  Network.ap[0].mac[3]  rxPkFromHL:vector(packetBytes)  ETV
attr interpolationmode  none
attr source  rxPkFromHL
attr title  "packet bytes from higher layer, vector(packetBytes)"
vector 97  Network.ap[0].mac[2]  rxPkFromHL:vector(packetBytes)  ETV
attr interpolationmode  none
attr source  rxPkFromHL
attr title  "packet bytes from higher layer, vector(packetBytes)"
vector 70  Network.ap[0].mac[0]  txPk:vector(packetBytes)  ETV
attr interpolationmode  none
attr source  txPk
attr title  "packets transmitted, vector(packetBytes)"
vector 103  Network.ap[0].mac[3]  txPk:vector(packetBytes)  ETV
attr interpolationmode  none
attr source  txPk
attr title  "packets transmitted, vector(packetBytes)"
vector 92  Network.ap[0].mac[2]  txPk:vector(packetBytes)  ETV
attr interpolationmode  none
attr source  txPk
attr title  "packets transmitted, vector(packetBytes)"
vector 35  Network.switch.mac[1]  rxPkOk:vector(packetBytes)  ETV
attr interpolationmode  none
attr source  rxPkOk
attr title  "packets received OK, vector(packetBytes)"
vector 36  Network.switch.mac[1]  passedUpPk:vector(packetBytes)  ETV
attr interpolationmode  none
attr source  packetSentToUpper
attr title  "packets passed to higher layer, vector(packetBytes)"
vector 265  Network.v[2].mac  droppedPkNotForUs:vector(packetBytes)  ETV
attr interpolationmode  none
attr source  dropPkNotForUs
attr title  "packets dropped/not for us, vector(packetBytes)"
vector 50  Network.switch.mac[2]  rxPkFromHL:vector(packetBytes)  ETV
attr interpolationmode  none
attr source  rxPkFromHL
attr title  "packet bytes from higher layer, vector(packetBytes)"
vector 45  Network.switch.mac[2]  txPk:vector(packetBytes)  ETV
attr interpolationmode  none
attr source  txPk
attr title  "packets transmitted, vector(packetBytes)"
vector 118  Network.ap[1].mac[0]  rxPkOk:vector(packetBytes)  ETV
attr interpolationmode  none
attr source  rxPkOk
attr title  "packets received OK, vector(packetBytes)"
vector 119  Network.ap[1].mac[0]  passedUpPk:vector(packetBytes)  ETV
attr interpolationmode  none
attr source  packetSentToUpper
attr title  "packets passed to higher layer, vector(packetBytes)"
vector 198  Network.ap[2].mac[3]  rxPkOk:vector(packetBytes)  ETV
attr interpolationmode  none
attr source  rxPkOk
attr title  "packets received OK, vector(packetBytes)"
vector 199  Network.ap[2].mac[3]  passedUpPk:vector(packetBytes)  ETV
attr interpolationmode  none
attr source  packetSentToUpper
attr title  "packets passed to higher layer, vector(packetBytes)"
vector 169  Network.ap[2].mac[0]  rxPkFromHL:vector(packetBytes)  ETV
attr interpolationmode  none
attr source  rxPkFromHL
attr title  "packet bytes from higher layer, vector(packetBytes)"
vector 164  Network.ap[2].mac[0]  txPk:vector(packetBytes)  ETV
attr interpolationmode  none
attr source  txPk
attr title  "packets transmitted, vector(packetBytes)"
vector 57  Network.switch.mac[3]  rxPkOk:vector(packetBytes)  ETV
attr interpolationmode  none
attr source  rxPkOk
attr title  "packets received OK, vector(packetBytes)"
vector 58  Network.switch.mac[3]  passedUpPk:vector(packetBytes)  ETV
attr interpolationmode  none
attr source  packetSentToUpper
attr title  "packets passed to higher layer, vector(packetBytes)"
vector 202  Network.ap[2].mac[3]  rxPkFromHL:vector(packetBytes)  ETV
attr interpolationmode  none
attr source  rxPkFromHL
attr title  "packet bytes from higher layer, vector(packetBytes)"
vector 197  Network.ap[2].mac[3]  txPk:vector(packetBytes)  ETV
attr interpolationmode  none
attr source  txPk
attr title  "packets transmitted, vector(packetBytes)"
vector 82  Network.ap[0].mac[1]  rxPkOk:vector(packetBytes)  ETV
attr interpolationmode  none
attr source  rxPkOk
attr title  "packets received OK, vector(packetBytes)"
vector 83  Network.ap[0].mac[1]  passedUpPk:vector(packetBytes)  ETV
attr interpolationmode  none
attr source  packetSentToUpper
attr title  "packets passed to higher layer, vector(packetBytes)"
vector 86  Network.ap[0].mac[1]  rxPkFromHL:vector(packetBytes)  ETV
attr interpolationmode  none
attr source  rxPkFromHL
attr title  "packet bytes from higher layer, vector(packetBytes)"
vector 81  Network.ap[0].mac[1]  txPk:vector(packetBytes)  ETV
attr interpolationmode  none
attr source  txPk
attr title  "packets transmitted, vector(packetBytes)"
vector 151  Network.ap[1].mac[3]  rxPkOk:vector(packetBytes)  ETV
attr interpolationmode  none
attr source  rxPkOk
attr title  "packets received OK, vector(packetBytes)"
vector 152  Network.ap[1].mac[3]  passedUpPk:vector(packetBytes)  ETV
attr interpolationmode  none
attr source  packetSentToUpper
attr title  "packets passed to higher layer, vector(packetBytes)"
vector 155  Network.ap[1].mac[3]  rxPkFromHL:vector(packetBytes)  ETV
attr interpolationmode  none
attr source  rxPkFromHL
attr title  "packet bytes from higher layer, vector(packetBytes)"
vector 150  Network.ap[1].mac[3]  txPk:vector(packetBytes)  ETV
attr interpolationmode  none
attr source  txPk
attr title  "packets transmitted, vector(packetBytes)"
vector 176  Network.ap[2].mac[1]  rxPkOk:vector(packetBytes)  ETV
attr interpolationmode  none
attr source  rxPkOk
attr title  "packets received OK, vector(packetBytes)"
vector 177  Network.ap[2].mac[1]  passedUpPk:vector(packetBytes)  ETV
attr interpolationmode  none
attr source  packetSentToUpper
attr title  "packets passed to higher layer, vector(packetBytes)"
vector 180  Network.ap[2].mac[1]  rxPkFromHL:vector(packetBytes)  ETV
attr interpolationmode  none
attr source  rxPkFromHL
attr title  "packet bytes from higher layer, vector(packetBytes)"
vector 175  Network.ap[2].mac[1]  txPk:vector(packetBytes)  ETV
attr interpolationmode  none
attr source  txPk
attr title  "packets transmitted, vector(packetBytes)"
vector 187  Network.ap[2].mac[2]  rxPkOk:vector(packetBytes)  ETV
attr interpolationmode  none
attr source  rxPkOk
attr title  "packets received OK, vector(packetBytes)"
vector 188  Network.ap[2].mac[2]  passedUpPk:vector(packetBytes)  ETV
attr interpolationmode  none
attr source  packetSentToUpper
attr title  "packets passed to higher layer, vector(packetBytes)"
vector 191  Network.ap[2].mac[2]  rxPkFromHL:vector(packetBytes)  ETV
attr interpolationmode  none
attr source  rxPkFromHL
attr title  "packet bytes from higher layer, vector(packetBytes)"
vector 186  Network.ap[2].mac[2]  txPk:vector(packetBytes)  ETV
attr interpolationmode  none
attr source  txPk
attr title  "packets transmitted, vector(packetBytes)"
0	72	0.000249659997	1000
0	96	0.000332779996	1000
0	199	0.100249659997	1000
0	236	0.100332779996	1000
0	261	0.100415899995	1000
0	361	0.200249659997	1000
0	398	0.200332779996	1000
0	423	0.200415899995	1000
0	523	0.300249659997	1000
0	560	0.300332779996	1000
0	585	0.300415899995	1000
0	685	0.400249659997	1000
0	722	0.400332779996	1000
0	747	0.400415899995	1000
0	847	0.500249659997	1000
0	884	0.500332779996	1000
0	909	0.500415899995	1000
0	1009	0.600249659997	1000
0	1046	0.600332779996	1000
0	1071	0.600415899995	1000
0	1171	0.700249659997	1000
0	1208	0.700332779996	1000
0	1233	0.700415899995	1000
0	1325	0.800249659997	1000
0	1367	0.800332779996	1000
0	1397	0.800415899995	1000
0	1495	0.900249659997	1000
0	1532	0.900332779996	1000
0	1557	0.900415899995	1000
0	1657	1.000249659997	1000
0	1694	1.000332779996	1000
0	1719	1.000415899995	1000
0	1811	1.100249659997	1000
0	1853	1.100332779996	1000
0	1883	1.100415899995	1000
0	1981	1.200249659997	1000
0	2018	1.200332779996	1000
0	2043	1.200415899995	1000
0	2135	1.300249659997	1000
0	2177	1.300332779996	1000
0	2207	1.300415899995	1000
0	2297	1.400249659997	1000
0	2339	1.400332779996	1000
0	2369	1.400415899995	1000
0	2459	1.500249659997	1000
0	2501	1.500332779996	1000
0	2531	1.500415899995	1000
0	2629	1.600249659997	1000
0	2666	1.600332779996	1000
0	2691	1.600415899995	1000
0	2791	1.700249659997	1000
0	2828	1.700332779996	1000
0	2853	1.700415899995	1000
0	2953	1.800249659997	1000
0	2990	1.800332779996	1000
0	3015	1.800415899995	1000
0	3117	1.900249659997	1000
0	3150	1.900332779996	1000
0	3174	1.900415899995	1000
0	3279	2.000249659997	1000
0	3312	2.000332779996	1000
0	3336	2.000415899995	1000
0	3441	2.100249659997	1000
0	3474	2.100332779996	1000
0	3498	2.100415899995	1000
0	3601	2.200249659997	1000
0	3638	2.200332779996	1000
0	3663	2.200415899995	1000
0	3763	2.300249659997	1000
0	3800	2.300332779996	1000
0	3825	2.300415899995	1000
0	3925	2.400249659997	1000
0	3962	2.400332779996	1000
0	3987	2.400415899995	1000
0	4087	2.500249659997	1000
0	4124	2.500332779996	1000
0	4149	2.500415899995	1000
0	4249	2.600249659997	1000
0	4286	2.600332779996	1000
0	4311	2.600415899995	1000
0	4411	2.700249659997	1000
0	4448	2.700332779996	1000
0	4473	2.700415899995	1000
0	4573	2.800249659997	1000
0	4610	2.800332779996	1000
0	4635	2.800415899995	1000
0	4737	2.900249659997	1000
0	4770	2.900332779996	1000
0	4794	2.900415899995	1000
0	4897	3.000249659997	1000
0	4934	3.000332779996	1000
0	4959	3.000415899995	1000
0	5059	3.100249659997	1000
0	5096	3.100332779996	1000
0	5121	3.100415899995	1000
0	5213	3.200249659997	1000
0	5255	3.200332779996	1000
0	5285	3.200415899995	1000
0	5375	3.300249659997	1000
0	5417	3.300332779996	1000
0	5447	3.300415899995	1000
0	5545	3.400249659997	1000
0	5582	3.400332779996	1000
0	5607	3.400415899995	1000
0	5707	3.500249659997	1000
0	5744	3.500332779996	1000
0	5769	3.500415899995	1000
0	5871	3.600249659997	1000
0	5904	3.600332779996	1000
0	5928	3.600415899995	1000
0	6033	3.700249659997	1000
0	6066	3.700332779996	1000
0	6090	3.700415899995	1000
0	6193	3.800249659997	1000
0	6230	3.800332779996	1000
0	6255	3.800415899995	1000
0	6347	3.900249659997	1000
0	6389	3.900332779996	1000
0	6419	3.900415899995	1000
0	6509	4.000249659997	1000
0	6551	4.000332779996	1000
2	72	0.000249659997	0.000249659997
2	96	0.000332779996	0.000332779996
2	199	0.100249659997	0.000249659997
2	236	0.100332779996	0.000332779996
2	261	0.100415899995	0.000415899995
2	361	0.200249659997	0.000249659997
2	398	0.200332779996	0.000332779996
2	423	0.200415899995	0.000415899995
2	523	0.300249659997	0.000249659997
2	560	0.300332779996	0.000332779996
2	585	0.300415899995	0.000415899995
2	685	0.400249659997	0.000249659997
2	722	0.400332779996	0.000332779996
2	747	0.400415899995	0.000415899995
2	847	0.500249659997	0.000249659997
2	884	0.500332779996	0.000332779996
2	909	0.500415899995	0.000415899995
2	1009	0.600249659997	0.000249659997
2	1046	0.600332779996	0.000332779996
2	1071	0.600415899995	0.000415899995
2	1171	0.700249659997	0.000249659997
2	1208	0.700332779996	0.000332779996
2	1233	0.700415899995	0.000415899995
2	1325	0.800249659997	0.000249659997
2	1367	0.800332779996	0.000332779996
2	1397	0.800415899995	0.000415899995
2	1495	0.900249659997	0.000249659997
2	1532	0.900332779996	0.000332779996
2	1557	0.900415899995	0.000415899995
2	1657	1.000249659997	0.000249659997
2	1694	1.000332779996	0.000332779996
2	1719	1.000415899995	0.000415899995
2	1811	1.100249659997	0.000249659997
2	1853	1.100332779996	0.000332779996
2	1883	1.100415899995	0.000415899995
2	1981	1.200249659997	0.000249659997
2	2018	1.200332779996	0.000332779996
2	2043	1.200415899995	0.000415899995
2	2135	1.300249659997	0.000249659997
2	2177	1.300332779996	0.000332779996
2	2207	1.300415899995	0.000415899995
2	2297	1.400249659997	0.000249659997
2	2339	1.400332779996	0.000332779996
2	2369	1.400415899995	0.000415899995
2	2459	1.500249659997	0.000249659997
2	2501	1.500332779996	0.000332779996
2	2531	1.500415899995	0.000415899995
2	2629	1.600249659997	0.000249659997
2	2666	1.600332779996	0.000332779996
2	2691	1.600415899995	0.000415899995
2	2791	1.700249659997	0.000249659997
2	2828	1.700332779996	0.000332779996
2	2853	1.700415899995	0.000415899995
2	2953	1.800249659997	0.000249659997
2	2990	1.800332779996	0.000332779996
2	3015	1.800415899995	0.000415899995
2	3117	1.900249659997	0.000249659997
2	3150	1.900332779996	0.000332779996
2	3174	1.900415899995	0.000415899995
2	3279	2.000249659997	0.000249659997
2	3312	2.000332779996	0.000332779996
2	3336	2.000415899995	0.000415899995
2	3441	2.100249659997	0.000249659997
2	3474	2.100332779996	0.000332779996
2	3498	2.100415899995	0.000415899995
2	3601	2.200249659997	0.000249659997
2	3638	2.200332779996	0.000332779996
2	3663	2.200415899995	0.000415899995
2	3763	2.300249659997	0.000249659997
2	3800	2.300332779996	0.000332779996
2	3825	2.300415899995	0.000415899995
2	3925	2.400249659997	0.000249659997
2	3962	2.400332779996	0.000332779996
2	3987	2.400415899995	0.000415899995
2	4087	2.500249659997	0.000249659997
2	4124	2.500332779996	0.000332779996
2	4149	2.500415899995	0.000415899995
2	4249	2.600249659997	0.000249659997
2	4286	2.600332779996	0.000332779996
2	4311	2.600415899995	0.000415899995
2	4411	2.700249659997	0.000249659997
2	4448	2.700332779996	0.000332779996
2	4473	2.700415899995	0.000415899995
2	4573	2.800249659997	0.000249659997
2	4610	2.800332779996	0.000332779996
2	4635	2.800415899995	0.000415899995
2	4737	2.900249659997	0.000249659997
2	4770	2.900332779996	0.000332779996
2	4794	2.900415899995	0.000415899995
2	4897	3.000249659997	0.000249659997
2	4934	3.000332779996	0.000332779996
2	4959	3.000415899995	0.000415899995
2	5059	3.100249659997	0.000249659997
2	5096	3.100332779996	0.000332779996
2	5121	3.100415899995	0.000415899995
2	5213	3.200249659997	0.000249659997
2	5255	3.200332779996	0.000332779996
2	5285	3.200415899995	0.000415899995
2	5375	3.300249659997	0.000249659997
2	5417	3.300332779996	0.000332779996
2	5447	3.300415899995	0.000415899995
2	5545	3.400249659997	0.000249659997
2	5582	3.400332779996	0.000332779996
2	5607	3.400415899995	0.000415899995
2	5707	3.500249659997	0.000249659997
2	5744	3.500332779996	0.000332779996
2	5769	3.500415899995	0.000415899995
2	5871	3.600249659997	0.000249659997
2	5904	3.600332779996	0.000332779996
2	5928	3.600415899995	0.000415899995
2	6033	3.700249659997	0.000249659997
2	6066	3.700332779996	0.000332779996
2	6090	3.700415899995	0.000415899995
2	6193	3.800249659997	0.000249659997
2	6230	3.800332779996	0.000332779996
2	6255	3.800415899995	0.000415899995
2	6347	3.900249659997	0.000249659997
2	6389	3.900332779996	0.000332779996
2	6419	3.900415899995	0.000415899995
2	6509	4.000249659997	0.000249659997
2	6551	4.000332779996	0.000332779996
4	69	0.000249659997	1000
4	93	0.000332779996	1000
4	195	0.100249659997	1000
4	233	0.100332779996	1000
4	259	0.100415899995	1000
4	357	0.200249659997	1000
4	395	0.200332779996	1000
4	421	0.200415899995	1000
4	519	0.300249659997	1000
4	557	0.300332779996	1000
4	583	0.300415899995	1000
4	681	0.400249659997	1000
4	719	0.400332779996	1000
4	745	0.400415899995	1000
4	843	0.500249659997	1000
4	881	0.500332779996	1000
4	907	0.500415899995	1000
4	1005	0.600249659997	1000
4	1043	0.600332779996	1000
4	1069	0.600415899995	1000
4	1167	0.700249659997	1000
4	1205	0.700332779996	1000
4	1231	0.700415899995	1000
4	1321	0.800249659997	1000
4	1363	0.800332779996	1000
4	1396	0.800415899995	1000
4	1491	0.900249659997	1000
4	1529	0.900332779996	1000
4	1555	0.900415899995	1000
4	1653	1.000249659997	1000
4	1691	1.000332779996	1000
4	1717	1.000415899995	1000
4	1807	1.100249659997	1000
4	1849	1.100332779996	1000
4	1882	1.100415899995	1000
4	1977	1.200249659997	1000
4	2015	1.200332779996	1000
4	2041	1.200415899995	1000
4	2131	1.300249659997	1000
4	2173	1.300332779996	1000
4	2206	1.300415899995	1000
4	2293	1.400249659997	1000
4	2335	1.400332779996	1000
4	2368	1.400415899995	1000
4	2455	1.500249659997	1000
4	2497	1.500332779996	1000
4	2530	1.500415899995	1000
4	2625	1.600249659997	1000
4	2663	1.600332779996	1000
4	2689	1.600415899995	1000
4	2787	1.700249659997	1000
4	2825	1.700332779996	1000
4	2851	1.700415899995	1000
4	2949	1.800249659997	1000
4	2987	1.800332779996	1000
4	3013	1.800415899995	1000
4	3114	1.900249659997	1000
4	3147	1.900332779996	1000
4	3171	1.900415899995	1000
4	3276	2.000249659997	1000
4	3309	2.000332779996	1000
4	3333	2.000415899995	1000
4	3438	2.100249659997	1000
4	3471	2.100332779996	1000
4	3495	2.100415899995	1000
4	3597	2.200249659997	1000
4	3635	2.200332779996	1000
4	3661	2.200415899995	1000
4	3759	2.300249659997	1000
4	3797	2.300332779996	1000
4	3823	2.300415899995	1000
4	3921	2.400249659997	1000
4	3959	2.400332779996	1000
4	3985	2.400415899995	1000
4	4083	2.500249659997	1000
4	4121	2.500332779996	1000
4	4147	2.500415899995	1000
4	4245	2.600249659997	1000
4	4283	2.600332779996	1000
4	4309	2.600415899995	1000
4	4407	2.700249659997	1000
4	4445	2.700332779996	1000
4	4471	2.700415899995	1000
4	4569	2.800249659997	1000
4	4607	2.800332779996	1000
4	4633	2.800415899995	1000
4	4734	2.900249659997	1000
4	4767	2.900332779996	1000
4	4791	2.900415899995	1000
4	4893	3.000249659997	1000
4	4931	3.000332779996	1000
4	4957	3.000415899995	1000
4	5055	3.100249659997	1000
4	5093	3.100332779996	1000
4	5119	3.100415899995	1000
4	5209	3.200249659997	1000
4	5251	3.200332779996	1000
4	5284	3.200415899995	1000
4	5371	3.300249659997	1000
4	5413	3.300332779996	1000
4	5446	3.300415899995	1000
4	5541	3.400249659997	1000
4	5579	3.400332779996	1000
4	5605	3.400415899995	1000
4	5703	3.500249659997	1000
4	5741	3.500332779996	1000
4	5767	3.500415899995	1000
4	5868	3.600249659997	1000
4	5901	3.600332779996	1000
4	5925	3.600415899995	1000
4	6030	3.700249659997	1000
4	6063	3.700332779996	1000
4	6087	3.700415899995	1000
4	6189	3.800249659997	1000
4	6227	3.800332779996	1000
4	6253	3.800415899995	1000
4	6343	3.900249659997	1000
4	6385	3.900332779996	1000
4	6418	3.900415899995	1000
4	6505	4.000249659997	1000
4	6547	4.000332779996	1000
8	0	0	0
10	66	0.000249659997	1019
10	90	0.000332779996	1019
10	191	0.100249659997	1019
10	230	0.100332779996	1019
10	257	0.100415899995	1019
10	353	0.200249659997	1019
10	392	0.200332779996	1019
10	419	0.200415899995	1019
10	515	0.300249659997	1019
10	554	0.300332779996	1019
10	581	0.300415899995	1019
10	677	0.400249659997	1019
10	716	0.400332779996	1019
10	743	0.400415899995	1019
10	839	0.500249659997	1019
10	878	0.500332779996	1019
10	905	0.500415899995	1019
10	1001	0.600249659997	1019
10	1040	0.600332779996	1019
10	1067	0.600415899995	1019
10	1163	0.700249659997	1019
10	1202	0.700332779996	1019
10	1229	0.700415899995	1019
10	1317	0.800249659997	1019
10	1359	0.800332779996	1019
10	1395	0.800415899995	1019
10	1487	0.900249659997	1019
10	1526	0.900332779996	1019
10	1553	0.900415899995	1019
10	1649	1.000249659997	1019
10	1688	1.000332779996	1019
10	1715	1.000415899995	1019
10	1803	1.100249659997	1019
10	1845	1.100332779996	1019
10	1881	1.100415899995	1019
10	1973	1.200249659997	1019
10	2012	1.200332779996	1019
10	2039	1.200415899995	1019
10	2127	1.300249659997	1019
10	2169	1.300332779996	1019
10	2205	1.300415899995	1019
10	2289	1.400249659997	1019
10	2331	1.400332779996	1019
10	2367	1.400415899995	1019
10	2451	1.500249659997	1019
10	2493	1.500332779996	1019
10	2529	1.500415899995	1019
10	2621	1.600249659997	1019
10	2660	1.600332779996	1019
10	2687	1.600415899995	1019
10	2783	1.700249659997	1019
10	2822	1.700332779996	1019
10	2849	1.700415899995	1019
10	2945	1.800249659997	1019
10	2984	1.800332779996	1019
10	3011	1.800415899995	1019
10	3111	1.900249659997	1019
10	3144	1.900332779996	1019
10	3168	1.900415899995	1019
10	3273	2.000249659997	1019
10	3306	2.000332779996	1019
10	3330	2.000415899995	1019
10	3435	2.100249659997	1019
10	3468	2.100332779996	1019
10	3492	2.100415899995	1019
10	3593	2.200249659997	1019
10	3632	2.200332779996	1019
10	3659	2.200415899995	1019
10	3755	2.300249659997	1019
10	3794	2.300332779996	1019
10	3821	2.300415899995	1019
10	3917	2.400249659997	1019
10	3956	2.400332779996	1019
10	3983	2.400415899995	1019
10	4079	2.500249659997	1019
10	4118	2.500332779996	1019
10	4145	2.500415899995	1019
10	4241	2.600249659997	1019
10	4280	2.600332779996	1019
10	4307	2.600415899995	1019
10	4403	2.700249659997	1019
10	4442	2.700332779996	1019
10	4469	2.700415899995	1019
10	4565	2.800249659997	1019
10	4604	2.800332779996	1019
10	4631	2.800415899995	1019
10	4731	2.900249659997	1019
10	4764	2.900332779996	1019
10	4788	2.900415899995	1019
10	4889	3.000249659997	1019